LAMMPS (17 Nov 2015)
WARNING: OMP_NUM_THREADS environment is not set. (../comm.cpp:90)
  using 1 OpenMP thread(s) per MPI task
Lattice spacing in x,y,z = 7.36806 7.36806 7.36806
Created orthogonal box = (0 0 0) to (36.8403 36.8403 36.8403)
  1 by 1 by 1 MPI processor grid
Created 500 atoms
Neighbor list info ...
  1 neighbor list requests
  update every 1 steps, delay 0 steps, check yes
  max neighbors/atom: 2000, page size: 100000
  master list distance cutoff = 2.8
  ghost atom cutoff = 2.8
  binsize = 1.4, bins = 27 27 27
Setting up Verlet run ...
  Unit style  : lj
  Current step: 0
  Time step   : 0.005
Memory usage per processor = 2.60828 Mbytes
Step Temp E_pair E_mol TotEng Press 
       0            2            0            0        2.994      0.01996 
    1000    2.1067137 -0.062696333            0    3.0910541  0.020995371 
Loop time of 0.0346179 on 1 procs for 1000 steps with 500 atoms

Performance: 12479092.880 tau/day, 28886.789 timesteps/s
104.0% CPU use with 1 MPI tasks x 1 OpenMP threads

MPI task timing breakdown:
Section |  min time  |  avg time  |  max time  |%varavg| %total
---------------------------------------------------------------
Pair    | 0.004792   | 0.004792   | 0.004792   |   0.0 | 13.84
Neigh   | 0.016961   | 0.016961   | 0.016961   |   0.0 | 49.00
Comm    | 0.0025101  | 0.0025101  | 0.0025101  |   0.0 |  7.25
Output  | 6.9141e-06 | 6.9141e-06 | 6.9141e-06 |   0.0 |  0.02
Modify  | 0.0081017  | 0.0081017  | 0.0081017  |   0.0 | 23.40
Other   |            | 0.002246   |            |       |  6.49

Nlocal:    500 ave 500 max 500 min
Histogram: 1 0 0 0 0 0 0 0 0 0
Nghost:    234 ave 234 max 234 min
Histogram: 1 0 0 0 0 0 0 0 0 0
Neighs:    228 ave 228 max 228 min
Histogram: 1 0 0 0 0 0 0 0 0 0

Total # of neighbors = 228
Ave neighs/atom = 0.456
Neighbor list builds = 152
Dangerous builds = 0
Setting up Verlet run ...
  Unit style  : lj
  Current step: 1000
  Time step   : 0.005
Memory usage per processor = 2.60828 Mbytes
Step Temp E_pair E_mol TotEng Press 
    1000    2.1067137 -0.062696333            0    3.0910541  0.020995371 
    2000    2.1139533 -0.063808059            0      3.10078  0.020676608 
Loop time of 0.055197 on 1 procs for 1000 steps with 500 atoms

Performance: 7826512.239 tau/day, 18116.926 timesteps/s
94.2% CPU use with 1 MPI tasks x 1 OpenMP threads

MPI task timing breakdown:
Section |  min time  |  avg time  |  max time  |%varavg| %total
---------------------------------------------------------------
Pair    | 0.0061879  | 0.0061879  | 0.0061879  |   0.0 | 11.21
Neigh   | 0.020439   | 0.020439   | 0.020439   |   0.0 | 37.03
Comm    | 0.0028415  | 0.0028415  | 0.0028415  |   0.0 |  5.15
Output  | 7.1526e-06 | 7.1526e-06 | 7.1526e-06 |   0.0 |  0.01
Modify  | 0.023252   | 0.023252   | 0.023252   |   0.0 | 42.13
Other   |            | 0.002469   |            |       |  4.47

Nlocal:    500 ave 500 max 500 min
Histogram: 1 0 0 0 0 0 0 0 0 0
Nghost:    233 ave 233 max 233 min
Histogram: 1 0 0 0 0 0 0 0 0 0
Neighs:    246 ave 246 max 246 min
Histogram: 1 0 0 0 0 0 0 0 0 0

Total # of neighbors = 246
Ave neighs/atom = 0.492
Neighbor list builds = 166
Dangerous builds = 0
Setting up Verlet run ...
  Unit style  : lj
  Current step: 2000
  Time step   : 0.005
Memory usage per processor = 2.60828 Mbytes
Step Temp dQ dT heatCapa 
    2000    2.1139533            5    0.1139533    43.877622 
    2100     2.108544          5.5   0.10854398    50.670706 
    2200    2.1096977            6   0.10969769    54.695773 
    2300    2.1045016          6.5    0.1045016    62.200006 
    2400    2.1152214            7   0.11522136    60.752625 
    2500     2.115336          7.5   0.11533603     65.02738 
    2600    2.1133487            8   0.11334871    70.578657 
    2700    2.1188525          8.5   0.11885248    71.517227 
    2800    2.1100652            9   0.11006524    81.769687 
    2900    2.1105231          9.5   0.11052314    85.954849 
    3000    2.1149641           10   0.11496411    86.983671 
    3100    2.1073203         10.5   0.10732028    97.837987 
    3200     2.113723           11   0.11372304    96.726225 
    3300    2.1111551         11.5   0.11115509    103.45905 
    3400    2.1218227           12   0.12182268    98.503823 
    3500    2.1211742         12.5   0.12117419    103.15728 
    3600    2.1142058           13   0.11420584    113.82955 
    3700    2.1267596         13.5   0.12675958    106.50083 
    3800    2.1177265           14   0.11772647    118.91973 
    3900    2.1159991         14.5   0.11599913    125.00094 
    4000    2.1226592           15   0.12265921    122.29004 
    4100    2.1227047         15.5    0.1227047    126.31953 
    4200    2.1148116           16   0.11481161    139.35873 
    4300    2.1294165         16.5   0.12941649    127.49535 
    4400    2.1324561           17   0.13245611     128.3444 
    4500    2.1306277         17.5   0.13062775    133.96848 
    4600    2.1138753           18   0.11387526     158.0677 
    4700    2.1286654         18.5   0.12866536    143.78384 
    4800    2.1192955           19   0.11929545    159.26844 
    4900    2.1205101         19.5   0.12051014    161.81211 
    5000    2.1285799           20   0.12857993    155.54527 
    5100    2.1294157         20.5   0.12941567    158.40432 
    5200    2.1239113           21   0.12391134    169.47602 
    5300    2.1326811         21.5   0.13268115    162.04261 
    5400    2.1358277           22   0.13582768    161.96993 
    5500    2.1396469         22.5   0.13964685    161.12071 
    5600     2.134271           23   0.13427104    171.29532 
    5700     2.126749         23.5     0.126749    185.40581 
    5800     2.130886           24   0.13088601    183.36567 
    5900    2.1351115         24.5    0.1351115    181.33171 
    6000    2.1343193           25   0.13431934    186.12361 
    6100    2.1306898         25.5   0.13068984    195.11846 
    6200      2.14754           26   0.14753997    176.22343 
    6300    2.1339532         26.5   0.13395316    197.83034 
    6400    2.1415639           27   0.14156392    190.72656 
    6500    2.1471201         27.5   0.14712008    186.92213 
    6600    2.1435928           28   0.14359278    194.99587 
    6700    2.1491563         28.5   0.14915634    191.07468 
    6800    2.1375584           29   0.13755843     210.8195 
    6900    2.1405089         29.5    0.1405089    209.95111 
    7000    2.1368592           30   0.13685917    219.20344 
    7100    2.1492343         30.5   0.14923432    204.37658 
    7200     2.150507           31   0.15050698    205.97051 
    7300    2.1437153         31.5   0.14371531    219.18333 
    7400    2.1459739           32   0.14597389    219.21728 
    7500    2.1397501         32.5   0.13975011    232.55795 
    7600    2.1450278           33   0.14502781    227.54257 
    7700    2.1585177         33.5   0.15851772    211.33284 
    7800    2.1477933           34   0.14779328    230.05105 
    7900     2.154715         34.5   0.15471504    222.99061 
    8000    2.1542807           35   0.15428066    226.85928 
    8100    2.1511903         35.5   0.15119035    234.80335 
    8200    2.1494439           36   0.14944388     240.8931 
    8300    2.1608739         36.5   0.16087387    226.88582 
    8400    2.1543593           37    0.1543593    239.70049 
    8500    2.1577139         37.5   0.15771391    237.77231 
    8600    2.1470008           38   0.14700085    258.50191 
    8700    2.1550689         38.5   0.15506891    248.27671 
    8800    2.1591053           39   0.15910533    245.12063 
    8900    2.1606354         39.5   0.16063541    245.89846 
    9000    2.1511792           40   0.15117915    264.58675 
    9100    2.1644298         40.5   0.16442976    246.30577 
    9200    2.1672727           41   0.16727271    245.10872 
    9300    2.1586347         41.5   0.15863471    261.60732 
    9400    2.1671963           42   0.16719635    251.20166 
    9500    2.1589544         42.5   0.15895444    267.37222 
    9600    2.1604595           43   0.16045949    267.98041 
    9700    2.1657842         43.5    0.1657842     262.3893 
    9800     2.164016           44     0.164016    268.26651 
    9900    2.1634797         44.5   0.16347967    272.20511 
   10000    2.1642462           45   0.16424621    273.97893 
   10100    2.1742834         45.5    0.1742834    261.06904 
   10200    2.1679831           46   0.16798306    273.83713 
   10300    2.1763036         46.5   0.17630358    263.74961 
   10400    2.1658226           47   0.16582264    283.43536 
   10500    2.1606372         47.5   0.16063725     295.6973 
   10600    2.1646316           48   0.16463158    291.56009 
   10700    2.1626062         48.5   0.16260615    298.26669 
   10800    2.1693564           49   0.16935642    289.33063 
   10900    2.1599174         49.5   0.15991735    309.53489 
   11000    2.1730554           50   0.17305541    288.92481 
   11100    2.1734674         50.5   0.17346744    291.12091 
   11200    2.1722738           51   0.17227379    296.04038 
   11300    2.1760827         51.5   0.17608265    292.47628 
   11400    2.1753134           52   0.17531337    296.61172 
   11500    2.1762987         52.5   0.17629871    297.79004 
   11600    2.1678583           53   0.16785829    315.74253 
   11700    2.1789889         53.5   0.17898895    298.90114 
   11800    2.1724013           54   0.17240129    313.22271 
   11900     2.181564         54.5   0.18156403    300.16958 
   12000    2.1793717           55   0.17937175    306.62576 
Loop time of 0.530615 on 1 procs for 10000 steps with 500 atoms

Performance: 8141498.445 tau/day, 18846.061 timesteps/s
100.3% CPU use with 1 MPI tasks x 1 OpenMP threads

MPI task timing breakdown:
Section |  min time  |  avg time  |  max time  |%varavg| %total
---------------------------------------------------------------
Pair    | 0.056635   | 0.056635   | 0.056635   |   0.0 | 10.67
Neigh   | 0.20268    | 0.20268    | 0.20268    |   0.0 | 38.20
Comm    | 0.02904    | 0.02904    | 0.02904    |   0.0 |  5.47
Output  | 0.0015085  | 0.0015085  | 0.0015085  |   0.0 |  0.28
Modify  | 0.21718    | 0.21718    | 0.21718    |   0.0 | 40.93
Other   |            | 0.02358    |            |       |  4.44

Nlocal:    500 ave 500 max 500 min
Histogram: 1 0 0 0 0 0 0 0 0 0
Nghost:    255 ave 255 max 255 min
Histogram: 1 0 0 0 0 0 0 0 0 0
Neighs:    239 ave 239 max 239 min
Histogram: 1 0 0 0 0 0 0 0 0 0

Total # of neighbors = 239
Ave neighs/atom = 0.478
Neighbor list builds = 1773
Dangerous builds = 0
Total wall time: 0:00:00
